[Molden Format]
[Title]
[Atoms] AU
C      1     6 -0.53427600464344E+01  0.24093517683431E+01 -0.71313948416292E+00
N      2     7 -0.27752870907698E+01  0.24802987621764E+01  0.18274891652404E+00
C      3     6 -0.16220793473367E+01  0.49544637922625E+01  0.28158858752524E+00
C      4     6 -0.15326474936416E+01  0.41044712550836E+00  0.87171628542896E+00
O      5     8  0.62931505733510E+00  0.33681030853862E+00  0.16672889062496E+01
H      6     1 -0.54517840509846E+01  0.32406999811812E+01 -0.25991993579441E+01
H      7     1 -0.65701294700778E+01  0.34838510447464E+01  0.55369811577253E+00
H      8     1 -0.60073536415883E+01  0.46595431123224E+00 -0.80383793035298E+00
H      9     1 -0.15950009691008E+01  0.57867602706062E+01 -0.16051760414729E+01
H     10     1  0.30510696378356E+00  0.47872762153261E+01  0.97530513165362E+00
H     11     1 -0.26950678953204E+01  0.61836375000100E+01  0.15440858048391E+01
H     12     1 -0.26601144710665E+01 -0.13276987283818E+01  0.66719756813511E+00
O     13     8  0.49148875840629E+01  0.34965122881991E+01  0.16775009903013E+01
C     14     6  0.66304541891899E+01  0.23358463159332E+01  0.15979213980543E-01
C     15     6  0.70480116965224E+01 -0.47611951701379E+00  0.58351906974944E+00
O     16     8  0.50375684012666E+01 -0.20039222752318E+01 -0.24740384379079E+00
H     17     1  0.34419008569148E+01  0.24031375992326E+01  0.18325776700414E+01
H     18     1  0.59780160105748E+01  0.25212527652360E+01 -0.19505905130189E+01
H     19     1  0.84146340431876E+01  0.33558986201411E+01  0.22121871337768E+00
H     20     1  0.73621149851588E+01 -0.71706055896529E+00  0.26216487533535E+01
H     21     1  0.87195453594386E+01 -0.11370370413632E+01 -0.43328122498518E+00
H     22     1  0.35139413017484E+01 -0.15067380372778E+01  0.65124172642459E+00
C     23     6 -0.11371358809269E+01  0.32210758045177E+01 -0.66524041115105E+01
C     24     6  0.11399870637411E+01  0.25267400986646E+01 -0.54326859564749E+01
C     25     6  0.11542496641634E+01  0.76740030482112E-01 -0.46822083646013E+01
S     26    16 -0.16186874436440E+01 -0.14360251442764E+01 -0.54415513804793E+01
C     27     6 -0.28019222515139E+01  0.12770946738265E+01 -0.67946740041575E+01
H     28     1 -0.15010965412297E+01  0.50787239662390E+01 -0.73952375367429E+01
H     29     1  0.26899198545883E+01  0.38078718821698E+01 -0.51391932056548E+01
H     30     1  0.26125087988927E+01 -0.95414352615523E+00 -0.37220776772273E+01
H     31     1 -0.46497782336077E+01  0.12517913694845E+01 -0.76248070962246E+01
[GTO]
           1 0
 s           4   1.00000000000000     
   51.0493630955799      -0.163120632101274     
   8.79112274068875      -0.199110245810007     
  0.706404222589298       0.318820477536558     
  0.269228134134116       0.127065041842404     
 p           4   1.00000000000000     
   5.82636561408000       0.737164515452096     
   1.51068960187200       0.682163716148503     
  0.532564832880000       0.357830539292537     
  0.212023236906000       5.398303027584788E-002
 
           2 0
 s           4   1.00000000000000     
   63.5940244669410      -0.192343884147216     
   10.9514172315237      -0.234781079249537     
  0.879993102573770       0.375937539017009     
  0.335387152965211       0.149828892718628     
 p           4   1.00000000000000     
   7.29650404814951       0.976586663156674     
   1.89187454507126       0.903722267303458     
  0.666944321108241       0.474049584615364     
  0.265522026741309       7.151606771501186E-002
 
           3 0
 s           4   1.00000000000000     
   51.0493630955799      -0.163120632101274     
   8.79112274068875      -0.199110245810007     
  0.706404222589298       0.318820477536558     
  0.269228134134116       0.127065041842404     
 p           4   1.00000000000000     
   5.82636561408000       0.737164515452096     
   1.51068960187200       0.682163716148503     
  0.532564832880000       0.357830539292537     
  0.212023236906000       5.398303027584788E-002
 
           4 0
 s           4   1.00000000000000     
   51.0493630955799      -0.163120632101274     
   8.79112274068875      -0.199110245810007     
  0.706404222589298       0.318820477536558     
  0.269228134134116       0.127065041842404     
 p           4   1.00000000000000     
   5.82636561408000       0.737164515452096     
   1.51068960187200       0.682163716148503     
  0.532564832880000       0.357830539292537     
  0.212023236906000       5.398303027584788E-002
 
           5 0
 s           4   1.00000000000000     
   69.1379619061966      -0.204787563700778     
   11.9061291327073      -0.249970231368273     
  0.956708277443407       0.400258802406396     
  0.364625204960737       0.159522066676936     
 p           4   1.00000000000000     
   8.21241932577816        1.13215567991868     
   2.12935769970981        1.04768407822548     
  0.750664482023609       0.549565082171590     
  0.298852465432831       8.290848659276662E-002
 
           6 0
 s           3   1.00000000000000     
   3.37022769753360       0.273591105889083     
  0.613891182214980       0.264605406538605     
  0.166142911484160       8.246594753408230E-002
 
           7 0
 s           3   1.00000000000000     
   3.37022769753360       0.273591105889083     
  0.613891182214980       0.264605406538605     
  0.166142911484160       8.246594753408230E-002
 
           8 0
 s           3   1.00000000000000     
   3.37022769753360       0.273591105889083     
  0.613891182214980       0.264605406538605     
  0.166142911484160       8.246594753408230E-002
 
           9 0
 s           3   1.00000000000000     
   3.37022769753360       0.273591105889083     
  0.613891182214980       0.264605406538605     
  0.166142911484160       8.246594753408230E-002
 
          10 0
 s           3   1.00000000000000     
   3.37022769753360       0.273591105889083     
  0.613891182214980       0.264605406538605     
  0.166142911484160       8.246594753408230E-002
 
          11 0
 s           3   1.00000000000000     
   3.37022769753360       0.273591105889083     
  0.613891182214980       0.264605406538605     
  0.166142911484160       8.246594753408230E-002
 
          12 0
 s           3   1.00000000000000     
   3.37022769753360       0.273591105889083     
  0.613891182214980       0.264605406538605     
  0.166142911484160       8.246594753408230E-002
 
          13 0
 s           4   1.00000000000000     
   69.1379619061966      -0.204787563700778     
   11.9061291327073      -0.249970231368273     
  0.956708277443407       0.400258802406396     
  0.364625204960737       0.159522066676936     
 p           4   1.00000000000000     
   8.21241932577816        1.13215567991868     
   2.12935769970981        1.04768407822548     
  0.750664482023609       0.549565082171590     
  0.298852465432831       8.290848659276662E-002
 
          14 0
 s           4   1.00000000000000     
   51.0493630955799      -0.163120632101274     
   8.79112274068875      -0.199110245810007     
  0.706404222589298       0.318820477536558     
  0.269228134134116       0.127065041842404     
 p           4   1.00000000000000     
   5.82636561408000       0.737164515452096     
   1.51068960187200       0.682163716148503     
  0.532564832880000       0.357830539292537     
  0.212023236906000       5.398303027584788E-002
 
          15 0
 s           4   1.00000000000000     
   51.0493630955799      -0.163120632101274     
   8.79112274068875      -0.199110245810007     
  0.706404222589298       0.318820477536558     
  0.269228134134116       0.127065041842404     
 p           4   1.00000000000000     
   5.82636561408000       0.737164515452096     
   1.51068960187200       0.682163716148503     
  0.532564832880000       0.357830539292537     
  0.212023236906000       5.398303027584788E-002
 
          16 0
 s           4   1.00000000000000     
   69.1379619061966      -0.204787563700778     
   11.9061291327073      -0.249970231368273     
  0.956708277443407       0.400258802406396     
  0.364625204960737       0.159522066676936     
 p           4   1.00000000000000     
   8.21241932577816        1.13215567991868     
   2.12935769970981        1.04768407822548     
  0.750664482023609       0.549565082171590     
  0.298852465432831       8.290848659276662E-002
 
          17 0
 s           3   1.00000000000000     
   3.37022769753360       0.273591105889083     
  0.613891182214980       0.264605406538605     
  0.166142911484160       8.246594753408230E-002
 
          18 0
 s           3   1.00000000000000     
   3.37022769753360       0.273591105889083     
  0.613891182214980       0.264605406538605     
  0.166142911484160       8.246594753408230E-002
 
          19 0
 s           3   1.00000000000000     
   3.37022769753360       0.273591105889083     
  0.613891182214980       0.264605406538605     
  0.166142911484160       8.246594753408230E-002
 
          20 0
 s           3   1.00000000000000     
   3.37022769753360       0.273591105889083     
  0.613891182214980       0.264605406538605     
  0.166142911484160       8.246594753408230E-002
 
          21 0
 s           3   1.00000000000000     
   3.37022769753360       0.273591105889083     
  0.613891182214980       0.264605406538605     
  0.166142911484160       8.246594753408230E-002
 
          22 0
 s           3   1.00000000000000     
   3.37022769753360       0.273591105889083     
  0.613891182214980       0.264605406538605     
  0.166142911484160       8.246594753408230E-002
 
          23 0
 s           4   1.00000000000000     
   51.0493630955799      -0.163120632101274     
   8.79112274068875      -0.199110245810007     
  0.706404222589298       0.318820477536558     
  0.269228134134116       0.127065041842404     
 p           4   1.00000000000000     
   5.82636561408000       0.737164515452096     
   1.51068960187200       0.682163716148503     
  0.532564832880000       0.357830539292537     
  0.212023236906000       5.398303027584788E-002
 
          24 0
 s           4   1.00000000000000     
   51.0493630955799      -0.163120632101274     
   8.79112274068875      -0.199110245810007     
  0.706404222589298       0.318820477536558     
  0.269228134134116       0.127065041842404     
 p           4   1.00000000000000     
   5.82636561408000       0.737164515452096     
   1.51068960187200       0.682163716148503     
  0.532564832880000       0.357830539292537     
  0.212023236906000       5.398303027584788E-002
 
          25 0
 s           4   1.00000000000000     
   51.0493630955799      -0.163120632101274     
   8.79112274068875      -0.199110245810007     
  0.706404222589298       0.318820477536558     
  0.269228134134116       0.127065041842404     
 p           4   1.00000000000000     
   5.82636561408000       0.737164515452096     
   1.51068960187200       0.682163716148503     
  0.532564832880000       0.357830539292537     
  0.212023236906000       5.398303027584788E-002
 
          26 0
 s           4   1.00000000000000     
   5.94059715667128      -8.937241731159805E-002
   1.67332031646937      -0.180826416098390     
  0.300052353376111       0.217239963388792     
  0.147626982610695       6.093036238655329E-002
 p           4   1.00000000000000     
   7.60402394306428      -0.258148203245547     
  0.785799530644415       0.290555694475872     
  0.355154539932778       0.228494836712103     
  0.171689541475341       3.379048730081900E-002
 d           3   1.00000000000000     
   1.51575937639239       0.574808919567051     
  0.475268595433768       0.261853961962925     
  0.185128831077629       3.488754942672512E-002
 
          27 0
 s           4   1.00000000000000     
   51.0493630955799      -0.163120632101274     
   8.79112274068875      -0.199110245810007     
  0.706404222589298       0.318820477536558     
  0.269228134134116       0.127065041842404     
 p           4   1.00000000000000     
   5.82636561408000       0.737164515452096     
   1.51068960187200       0.682163716148503     
  0.532564832880000       0.357830539292537     
  0.212023236906000       5.398303027584788E-002
 
          28 0
 s           3   1.00000000000000     
   3.37022769753360       0.273591105889083     
  0.613891182214980       0.264605406538605     
  0.166142911484160       8.246594753408230E-002
 
          29 0
 s           3   1.00000000000000     
   3.37022769753360       0.273591105889083     
  0.613891182214980       0.264605406538605     
  0.166142911484160       8.246594753408230E-002
 
          30 0
 s           3   1.00000000000000     
   3.37022769753360       0.273591105889083     
  0.613891182214980       0.264605406538605     
  0.166142911484160       8.246594753408230E-002
 
          31 0
 s           3   1.00000000000000     
   3.37022769753360       0.273591105889083     
  0.613891182214980       0.264605406538605     
  0.166142911484160       8.246594753408230E-002
 
[MO]
Sym=     1a
Ene=  -0.731506623816077     
Spin= Alpha
Occup=     2.00000000
           1 -2.420694161076617E-003
           2 -8.488650692898286E-004
           3  6.449927978148387E-004
           4  2.123653157110813E-004
           5 -3.730475196648200E-003
           6  9.249678315760676E-006
           7  1.282471429987535E-003
           8 -3.988469354164476E-005
           9 -6.079616361966686E-004
          10  1.738120976152855E-004
          11  6.007666768690599E-004
          12  7.593267137711478E-005
          13 -4.655291465065272E-003
          14 -3.124843311180149E-004
          15 -4.486561815565699E-004
          16 -5.351238632941710E-004
          17 -4.229014972197092E-003
          18  1.583787232934628E-003
          19 -8.221839167497203E-005
          20  8.340407939059688E-004
          21 -3.196440579342063E-003
          22 -2.662476800310770E-004
          23 -3.762524869072169E-003
          24 -5.379779860791602E-004
          25 -2.081669866711781E-004
          26 -3.278321057124659E-005
          27 -5.633670108036016E-003
          28  1.126427497700822E-005
          29  4.536089255485512E-006
          30  4.665487657909764E-006
          31  1.834993339810046E-005
          32 -2.748312275318924E-005
          33  1.665025858170921E-005
          34  3.911797851502777E-006
          35  1.344152858175919E-005
          36  1.498446160075707E-005
          37  1.783006141551145E-005
          38 -2.761818879053269E-005
          39  2.517409017911715E-005
          40 -3.017319492259415E-004
          41  3.156654148021233E-004
          42 -1.187681022427935E-004
          43  3.366074794820026E-004
          44  2.087121334533375E-005
          45 -2.935354112787349E-005
          46  2.812739202913439E-006
          47  1.869113202539311E-005
          48  2.912114224748593E-005
          49 -2.535525855812036E-004
          50  2.256576461333549E-002
          51 -3.272053361082620E-003
          52 -1.697833054546125E-002
          53  4.689441582296718E-003
          54  2.056972816998002E-002
          55 -9.924580785446198E-003
          56 -1.320323461825494E-002
          57  2.679846898649120E-004
          58  8.757126714594754E-002
          59 -6.042389641431446E-002
          60 -2.386440068815558E-002
          61 -1.765293764100861E-002
          62  0.906480417568206     
          63 -7.792757466528695E-003
          64  1.555539079065226E-002
          65  4.747023372490308E-004
          66  1.569957835135440E-003
          67 -2.076223934278374E-003
          68  5.062660991429344E-004
          69 -2.584384635546577E-003
          70  6.881334420962447E-004
          71  3.560001554477598E-004
          72  9.680565263048188E-002
          73  2.886617914720083E-002
          74 -5.386757302435544E-002
          75  3.222475777740806E-002
          76 -2.337582982191695E-003
          77 -2.525754099606163E-003
          78 -1.483129742134693E-002
          79 -1.253334419613833E-002
Sym=     2a
Ene=  -0.716772761839530     
Spin= Alpha
Occup=     2.00000000
           1  7.008902374103334E-003
           2 -1.188057593964671E-002
           3  8.069855652477463E-003
           4 -5.193069746426512E-003
           5 -0.143650450078898     
           6 -9.885808137750215E-002
           7  6.625501770387279E-002
           8 -4.345032257015790E-002
           9 -3.619808905072382E-002
          10 -3.915448842170718E-003
          11  3.868231437176492E-002
          12 -6.302169117625736E-003
          13 -0.397941905425463     
          14 -0.182705827475600     
          15 -5.042380546660795E-002
          16 -5.834534759747321E-002
          17 -0.596177175843028     
          18  0.156439915705660     
          19 -3.026985578753569E-002
          20  7.068556162847638E-002
          21  3.934150428012602E-003
          22  3.789160280090296E-003
          23  1.439707230469089E-007
          24 -1.846776313075644E-003
          25 -1.113503040393137E-002
          26 -1.893309388419327E-003
          27 -4.137146248383269E-002
          28  3.447863089089691E-003
          29  1.421944534819614E-004
          30 -6.982904814825920E-004
          31  2.945114158844428E-004
          32  8.859479095194783E-004
          33 -3.810288904722070E-004
          34 -5.001542605314781E-005
          35  4.277613506601645E-004
          36  1.098785755292002E-003
          37 -7.672990786536420E-004
          38 -1.759431402837940E-004
          39 -3.062551150121578E-005
          40  4.308766994652204E-003
          41 -4.561245305498807E-004
          42  3.409561672104279E-004
          43  8.065144616480610E-004
          44  6.813309341379489E-003
          45  2.502999297221818E-005
          46 -5.606033801692728E-005
          47  2.044537063714357E-004
          48 -7.199745303144241E-005
          49  7.156199181991554E-003
          50 -3.775524762314122E-004
          51 -2.539980818811373E-005
          52  2.664229605298198E-004
          53 -2.164054176726965E-004
          54 -7.152522181438691E-004
          55  3.762965899166001E-004
          56  3.749291715093758E-004
          57 -6.435695226459640E-004
          58 -2.167163178944500E-003
          59  1.361216604786526E-003
          60 -1.388855621288243E-004
          61 -1.907988481787243E-003
          62 -6.601111523805742E-003
          63 -1.751805410059615E-004
          64 -4.772759916362937E-004
          65 -5.864658173788771E-004
          66  1.098286070910936E-006
          67  1.148573099280066E-004
          68 -1.159555959989175E-004
          69  1.534149584876431E-004
          70  3.185134700425490E-004
          71 -2.107803289641980E-005
          72 -9.330319056462250E-004
          73 -3.710086855270411E-004
          74  4.724259145242994E-004
          75 -3.673032987686618E-004
          76  1.062370014090646E-005
          77 -1.595675422901493E-005
          78 -4.965398705510275E-004
          79  6.131774104831442E-005
Sym=     3a
Ene=  -0.691970884585963     
Spin= Alpha
Occup=     2.00000000
           1 -0.259467391833212     
           2 -0.139769115925100     
           3 -9.754275364585953E-004
           4 -5.081706089476903E-002
           5 -0.545093548201650     
           6  6.060968604256780E-002
           7  1.733769173803431E-002
           8  1.618815758918711E-002
           9 -0.164285051748374     
          10  6.317123584695250E-002
          11  0.105144224408105     
          12  8.305941754917064E-003
          13 -0.125187996721957     
          14  0.168881868976332     
          15 -0.138471733133836     
          16  7.414413892516171E-002
          17  0.249353296806173     
          18  2.169771878352446E-002
          19 -3.972886303823973E-002
          20  5.385764022123548E-003
          21 -5.227871453777921E-002
          22 -5.293226416499784E-002
          23 -5.676199287661146E-002
          24 -3.087593358354121E-002
          25 -2.320396503828851E-002
          26 -3.133074412904860E-002
          27 -3.768650845629923E-002
          28  4.208640257606915E-003
          29 -9.601683508790662E-004
          30 -2.029426428213373E-003
          31 -1.437834135029537E-004
          32  1.709455860181610E-003
          33 -1.198044317940422E-003
          34 -5.205278560071852E-004
          35  7.042328112181604E-004
          36  2.669566352535809E-003
          37 -2.485489267635379E-003
          38 -4.333648179939119E-004
          39 -2.308965099220888E-004
          40  1.112050627046988E-002
          41 -3.502833586395379E-003
          42  2.085852385648173E-003
          43  1.952265015670839E-003
          44  2.771453941152837E-003
          45  1.697160649975415E-004
          46 -9.934974296596331E-006
          47  2.975088941884811E-004
          48 -9.790480031752885E-005
          49  7.083530127982843E-003
          50 -2.158695631674812E-003
          51  5.186136132603035E-004
          52  4.306419525200555E-004
          53 -1.386565747372595E-003
          54 -1.696592146868540E-003
          55  1.160812866276590E-003
          56  5.868571813912945E-005
          57 -8.013473924964682E-004
          58 -1.217024811670154E-003
          59  1.169753890923942E-003
          60 -8.686598127852825E-004
          61 -3.513675391369956E-004
          62 -1.167722541685753E-003
          63  2.614589389102204E-004
          64 -1.189716615855877E-003
          65 -7.996415353197948E-004
          66 -4.070983110038498E-004
          67  8.039091361395990E-005
          68  3.267073973898900E-004
          69 -2.156212774697348E-004
          70 -5.626865671255376E-004
          71  7.220754125833340E-004
          72 -2.312170156346621E-003
          73 -2.025342278186691E-005
          74 -6.425451635508075E-004
          75 -1.752009976438658E-003
          76 -3.525897807655207E-004
          77 -1.982094579823242E-004
          78  2.851096919992013E-004
          79 -4.508660915089921E-004
Sym=     4a
Ene=  -0.673103457225470     
Spin= Alpha
Occup=     2.00000000
           1  1.944022806111451E-002
           2  6.797668975923199E-003
           3  4.762664716779658E-003
           4  1.573235467083392E-003
           5  1.837767893152237E-002
           6 -1.036527619514514E-002
           7  2.012300786285973E-002
           8 -7.807444717912320E-003
           9  1.976732556233680E-002
          10 -5.302398599230097E-003
          11 -5.413313765333634E-003
          12 -1.646180702995512E-003
          13 -2.169902719985189E-002
          14  3.986495114501798E-003
          15  2.566525155938454E-003
          16 -4.679590611617043E-003
          17  3.810632216378798E-002
          18  4.493603775155527E-002
          19  1.509390765992529E-003
          20 -2.534066444173040E-003
          21  6.053046465516535E-003
          22  5.763637553173844E-003
          23  3.122648076885472E-003
          24  5.418166131383259E-003
          25  7.187555619568217E-003
          26  5.174355201088418E-003
          27 -7.958517200665829E-003
          28  0.389787640930525     
          29  6.487239735910580E-003
          30 -5.186977593075711E-002
          31 -3.225246081522970E-002
          32  0.170053698088448     
          33 -7.601985590590168E-002
          34 -8.029544787117029E-003
          35  6.144397799849541E-002
          36  0.222383867862346     
          37 -0.129739050583902     
          38 -4.589382791709605E-002
          39 -4.226961964327167E-002
          40  0.598131095240413     
          41  1.976113969730529E-002
          42  6.635718076271856E-002
          43  3.249437447911332E-002
          44  8.758233933068524E-002
          45  2.627663972224440E-002
          46  1.663899779509261E-002
          47  3.053676188672881E-002
          48  2.381854962764719E-002
          49  0.121712784297700     
          50  6.247135972594463E-004
          51  1.196257413612681E-004
          52 -1.541690832856720E-004
          53  3.321450033699173E-004
          54  1.715077542632637E-003
          55  1.465729751123818E-004
          56 -5.436798229256129E-004
          57  6.430507490113636E-004
          58  3.235101873097840E-003
          59  1.146317433094816E-003
          60  7.532788043708032E-005
          61  1.386020153937331E-003
          62 -4.550679950188976E-004
          63  4.638262854372719E-004
          64  2.818965404889295E-004
          65  1.711972129714902E-004
          66 -6.210920288296394E-005
          67  4.659525125769503E-005
          68  1.551395162526891E-005
          69  1.829763104136018E-005
          70 -1.165287307424107E-004
          71 -7.351509152984607E-005
          72  2.923798669879764E-004
          73  1.026310037151467E-004
          74  2.174632500394128E-004
          75  1.862605237991459E-004
          76  1.130198813255908E-004
          77  7.745056023921255E-004
          78  5.477730409174353E-003
          79  7.435936980812790E-005
Sym=     5a
Ene=  -0.667876010827908     
Spin= Alpha
Occup=     2.00000000
           1  9.107377724492733E-003
           2  1.644386653746497E-003
           3 -3.322352175276868E-003
           4  9.852522306363232E-004
           5 -6.170377795889469E-004
           6 -9.311727287112031E-003
           7 -1.456369233380206E-002
           8 -1.716708331416577E-003
           9 -1.738321474603964E-002
          10 -9.161171073012366E-004
          11  3.896599349235310E-003
          12 -7.160103778383829E-004
          13  1.335356122136501E-002
          14 -3.923940970210140E-003
          15 -8.024887751830859E-003
          16 -1.481025805486882E-003
          17 -9.913292376113020E-003
          18 -1.330931499193233E-002
          19 -2.061149381865279E-002
          20 -5.678447356171369E-003
          21  1.863358009450132E-003
          22  1.969108760765382E-003
          23  4.223926193910983E-003
          24 -4.168335397515456E-003
          25 -1.140052955698309E-002
          26 -4.128187970820069E-003
          27  7.223554773366289E-003
          28 -0.632758616796778     
          29 -1.236367309297969E-002
          30  4.022047080905948E-002
          31  3.986134601584734E-002
          32 -0.178968077622943     
          33  9.858852090204274E-002
          34 -8.423240101491680E-002
          35 -9.628074483181542E-002
          36  0.100666644477608     
          37 -6.869887109404671E-002
          38 -9.488378937085555E-002
          39 -3.911694498423440E-002
          40  0.451316816564661     
          41  1.607666717433344E-002
          42  2.011553344147238E-002
          43  1.344760983643140E-002
          44 -0.115581896908926     
          45 -2.029036014677061E-002
          46 -2.236421312381378E-002
          47  7.733773935736025E-003
          48  1.439995691481478E-002
          49  7.680446710715279E-002
          50 -1.944726704294750E-004
          51 -4.020589771412760E-005
          52 -1.367624403069423E-005
          53 -6.824745773232315E-005
          54 -2.140578699176293E-004
          55 -2.470377321614441E-005
          56 -3.370081503264054E-004
          57 -9.996002856156124E-005
          58  1.378345109535661E-003
          59  4.836054802955839E-004
          60 -6.397008696762440E-004
          61  7.437969744088157E-004
          62 -1.650036973851643E-004
          63  2.634592442023436E-004
          64  5.169694129722052E-005
          65  2.882393933579215E-004
          66 -5.907189939967837E-005
          67  1.064633394635963E-004
          68 -4.739144006391788E-005
          69  2.551057953829041E-005
          70 -3.732853642567189E-005
          71 -3.332787065131942E-005
          72 -1.058477117496142E-004
          73 -6.571076626991635E-005
          74  1.139657289361447E-005
          75  3.374640152558908E-005
          76 -5.388437803868835E-005
          77 -5.481176216115722E-004
          78  3.656991848646549E-003
          79  1.944851523891385E-007
Sym=     6a
Ene=  -0.655795269549155     
Spin= Alpha
Occup=     2.00000000
           1  0.164060989340024     
           2  6.585315313134402E-003
           3 -9.699120937469455E-002
           4  1.519707438198107E-002
           5 -7.245722949911908E-002
           6 -0.167132849951233     
           7 -0.378974428344963     
           8 -1.179008250354985E-002
           9 -0.422250751145815     
          10  5.253381159217296E-002
          11  9.336415058433983E-002
          12  5.757638202641288E-003
          13  0.201331954988457     
          14 -0.120764657010486     
          15 -5.626974649462154E-002
          16 -3.394321441231483E-002
          17 -9.612693618866815E-002
          18 -7.617671165795779E-002
          19 -4.261502624890139E-002
          20 -1.812072175793726E-002
          21  2.935296916778760E-002
          22  3.337401280372108E-002
          23  9.918389307816122E-002
          24 -0.120147723132213     
          25 -0.111515024693059     
          26 -0.120900931562498     
          27  0.116978343047549     
          28  5.583152326708556E-002
          29  1.899579213389887E-002
          30 -2.273791953743369E-003
          31 -7.900455562389570E-003
          32  3.048149339858582E-002
          33 -9.375563903658639E-003
          34  6.394642300508934E-003
          35  1.166966239850735E-002
          36  1.243100626492742E-002
          37 -3.108057879225898E-003
          38  4.072642822633331E-003
          39 -1.256726347972411E-003
          40  7.312050184030544E-003
          41  6.067268515938456E-003
          42  2.294405594976761E-003
          43 -6.898024092715964E-004
          44 -7.303356564680290E-003
          45  4.893685180586461E-003
          46  6.165833452445296E-003
          47  2.591953756053120E-003
          48  2.403816247177954E-003
          49 -4.607107562397786E-003
          50 -7.055248479654978E-003
          51 -1.034432577831299E-003